3
nstep = 0
O   0.000000   0.000000   0.120914
H   0.000000   0.756668  -0.483658
H   0.000000  -0.756668  -0.483658
3
nstep = 1
O   0.000314   0.004127   0.121248
H  -0.016016   0.750858  -0.493523
H  -0.002979  -0.742216  -0.484379
3
nstep = 2
O   0.001406   0.004162   0.122197
H  -0.031265   0.743274  -0.505321
H  -0.005194  -0.735190  -0.487767
3
nstep = 3
O   0.002505   0.004302   0.123441
H  -0.046615   0.738023  -0.518818
H  -0.007437  -0.732169  -0.494172
3
nstep = 4
O   0.003611   0.004573   0.124893
H  -0.062052   0.734689  -0.533126
H  -0.009693  -0.733168  -0.503086
3
nstep = 5
O   0.004717   0.004975   0.126421
H  -0.077504   0.732594  -0.547169
H  -0.011925  -0.737513  -0.513488
3
nstep = 6
O   0.005811   0.005487   0.127872
H  -0.092861   0.730967  -0.559846
H  -0.014072  -0.744070  -0.524039
3
nstep = 7
O   0.006880   0.006070   0.129099
H  -0.107993   0.729096  -0.570178
H  -0.016060  -0.751531  -0.533333
3
nstep = 8
O   0.007914   0.006682   0.129974
H  -0.122781   0.726433  -0.577410
H  -0.017810  -0.758667  -0.540101
3
nstep = 9
O   0.008902   0.007283   0.130406
H  -0.137150   0.722650  -0.581066
H  -0.019249  -0.764501  -0.543358
3
nstep = 10
O   0.009839   0.007837   0.130343
H  -0.151072   0.717669  -0.580968
H  -0.020314  -0.768381  -0.542456
3
nstep = 11
O   0.010720   0.008313   0.129778
H  -0.164534   0.711686  -0.577243
H  -0.020954  -0.770018  -0.537126
3
nstep = 12
O   0.011545   0.008690   0.128748
H  -0.177545   0.705171  -0.570359
H  -0.021139  -0.769522  -0.527542
3
nstep = 13
O   0.012319   0.008957   0.127343
H  -0.190199   0.698802  -0.561087
H  -0.020872  -0.767429  -0.514323
3
nstep = 14
O   0.013058   0.009123   0.125683
H  -0.202695   0.693367  -0.550400
H  -0.020193  -0.764660  -0.498460
3
nstep = 15
O   0.013782   0.009217   0.123915
H  -0.215302   0.689640  -0.539343
H  -0.019172  -0.762432  -0.481221
3
nstep = 16
O   0.014517   0.009284   0.122185
H  -0.228316   0.688234  -0.528884
H  -0.017916  -0.762088  -0.464004
3
nstep = 17
O   0.015286   0.009380   0.120624
H  -0.241986   0.689452  -0.519774
H  -0.016551  -0.764858  -0.448131
3
nstep = 18
O   0.016107   0.009566   0.119322
H  -0.256463   0.693188  -0.512448
H  -0.015218  -0.771555  -0.434628
3
nstep = 19
O   0.016990   0.009881   0.118320
H  -0.271745   0.698895  -0.507001
H  -0.014062  -0.782316  -0.424053
3
nstep = 20
O   0.017933   0.010344   0.117608
H  -0.287673   0.705660  -0.503230
H  -0.013219  -0.796481  -0.416433
3
nstep = 21
O   0.018926   0.010939   0.117134
H  -0.303971   0.712359  -0.500734
H  -0.012807  -0.812705  -0.411333
3
nstep = 22
O   0.019954   0.011631   0.116821
H  -0.320304   0.717834  -0.499028
H  -0.012929  -0.829248  -0.408035
3
nstep = 23
O   0.021003   0.012371   0.116591
H  -0.336345   0.721053  -0.497642
H  -0.013661  -0.844314  -0.405737
3
nstep = 24
O   0.022057   0.013112   0.116373
H  -0.351824   0.721219  -0.496193
H  -0.015060  -0.856330  -0.403705
3
nstep = 25
O   0.023111   0.013812   0.116116
H  -0.366570   0.717820  -0.494427
H  -0.017164  -0.864124  -0.401364
3
nstep = 26
O   0.024158   0.014439   0.115791
H  -0.380513   0.710656  -0.492233
H  -0.019988  -0.867001  -0.398346
3
nstep = 27
O   0.025201   0.014976   0.115391
H  -0.393661   0.699866  -0.489661
H  -0.023520  -0.864795  -0.394515
3
nstep = 28
O   0.026242   0.015417   0.114935
H  -0.406128   0.685943  -0.486910
H  -0.027717  -0.857935  -0.389976
3
nstep = 29
O   0.027294   0.015779   0.114464
H  -0.418158   0.669660  -0.484290
H  -0.032518  -0.847441  -0.385058
3
nstep = 30
O   0.028375   0.016096   0.114033
H  -0.430116   0.651982  -0.482177
H  -0.037850  -0.834843  -0.380284
3
nstep = 31
O   0.029506   0.016423   0.113707
H  -0.442422   0.633948  -0.480937
H  -0.043639  -0.822027  -0.376300
3
nstep = 32
O   0.030708   0.016820   0.113543
H  -0.455484   0.616548  -0.480852
H  -0.049802  -0.810987  -0.373768
3
nstep = 33
O   0.031993   0.017348   0.113582
H  -0.469610   0.600598  -0.482034
H  -0.056240  -0.803490  -0.373206
3
nstep = 34
O   0.033360   0.018047   0.113828
H  -0.484925   0.586648  -0.484369
H  -0.062806  -0.800720  -0.374813
3
nstep = 35
O   0.034790   0.018923   0.114245
H  -0.501319   0.574940  -0.487497
H  -0.069290  -0.803022  -0.378354
3
nstep = 36
O   0.036242   0.019944   0.114754
H  -0.518436   0.565424  -0.490843
H  -0.075401  -0.809852  -0.383148
3
nstep = 37
O   0.037661   0.021051   0.115248
H  -0.535736   0.557816  -0.493699
H  -0.080799  -0.819957  -0.388193
3
nstep = 38
O   0.038985   0.022169   0.115611
H  -0.552592   0.551690  -0.495334
H  -0.085136  -0.831708  -0.392372
3
nstep = 39
O   0.040158   0.023222   0.115737
H  -0.568393   0.546578  -0.495086
H  -0.088103  -0.843444  -0.394641
3
nstep = 40
O   0.041133   0.024147   0.115543
H  -0.582629   0.542049  -0.492442
H  -0.089463  -0.853719  -0.394168
3
nstep = 41
O   0.041878   0.024898   0.114972
H  -0.594950   0.537768  -0.487080
H  -0.089068  -0.861458  -0.390398
3
nstep = 42
O   0.042380   0.025447   0.114003
H  -0.605184   0.533533  -0.478898
H  -0.086865  -0.866006  -0.383080
3
nstep = 43
O   0.042644   0.025785   0.112653
H  -0.613345   0.529298  -0.468058
H  -0.082917  -0.867172  -0.372312
3
nstep = 44
O   0.042695   0.025926   0.110974
H  -0.619682   0.525160  -0.454979
H  -0.077409  -0.865288  -0.358540
3
nstep = 45
O   0.042584   0.025910   0.109053
H  -0.624684   0.521326  -0.440270
H  -0.070631  -0.861202  -0.342503
3
nstep = 46
O   0.042376   0.025801   0.106993
H  -0.629026   0.518067  -0.424658
H  -0.062952  -0.856202  -0.325152
3
nstep = 47
O   0.042145   0.025681   0.104908
H  -0.633487   0.515662  -0.408905
H  -0.054796  -0.851876  -0.307554
3
nstep = 48
O   0.041967   0.025639   0.102909
H  -0.638838   0.514318  -0.393717
H  -0.046594  -0.849855  -0.290748
3
nstep = 49
O   0.041907   0.025755   0.101082
H  -0.645720   0.514097  -0.379659
H  -0.038757  -0.851492  -0.275589
3
nstep = 50
O   0.042013   0.026084   0.099486
H  -0.654540   0.514851  -0.367091
H  -0.031636  -0.857515  -0.262607
3
nstep = 51
O   0.042309   0.026642   0.098136
H  -0.665396   0.516202  -0.356155
H  -0.025519  -0.867793  -0.251953
3
nstep = 52
O   0.042796   0.027403   0.097017
H  -0.678063   0.517564  -0.346781
H  -0.020630  -0.881333  -0.243423
3
nstep = 53
O   0.043451   0.028311   0.096086
H  -0.692051   0.518220  -0.338730
H  -0.017129  -0.896512  -0.236567
3
nstep = 54
O   0.044241   0.029294   0.095285
H  -0.706703   0.517426  -0.331659
H  -0.015119  -0.911448  -0.230825
3
nstep = 55
O   0.045125   0.030283   0.094556
H  -0.721310   0.514506  -0.325179
H  -0.014650  -0.924354  -0.225648
3
nstep = 56
O   0.046061   0.031222   0.093848
H  -0.735215   0.508927  -0.318918
H  -0.015719  -0.933789  -0.220571
3
nstep = 57
O   0.047012   0.032070   0.093118
H  -0.747878   0.500353  -0.312563
H  -0.018273  -0.938790  -0.215256
3
nstep = 58
O   0.047948   0.032808   0.092342
H  -0.758922   0.488683  -0.305890
H  -0.022205  -0.938933  -0.209505
3
nstep = 59
O   0.048847   0.033437   0.091508
H  -0.768164   0.474085  -0.298784
H  -0.027354  -0.934388  -0.203273
3
nstep = 60
O   0.049700   0.033976   0.090622
H  -0.775661   0.456983  -0.291234
H  -0.033507  -0.925925  -0.196651
3
nstep = 61
O   0.050511   0.034471   0.089702
H  -0.781721   0.438017  -0.283317
H  -0.040417  -0.914872  -0.189842
3
nstep = 62
O   0.051295   0.034980   0.088773
H  -0.786868   0.417978  -0.275175
H  -0.047822  -0.902982  -0.183128
3
nstep = 63
O   0.052079   0.035573   0.087867
H  -0.791779   0.397747  -0.266983
H  -0.055448  -0.892231  -0.176815
3
nstep = 64
O   0.052889   0.036311   0.087009
H  -0.797183   0.378205  -0.258916
H  -0.063008  -0.884507  -0.171164
3
nstep = 65
O   0.053747   0.037236   0.086217
H  -0.803729   0.360148  -0.251099
H  -0.070191  -0.881249  -0.166305
3
nstep = 66
O   0.054659   0.038351   0.085489
H  -0.811861   0.344200  -0.243575
H  -0.076647  -0.883138  -0.162182
3
nstep = 67
O   0.055607   0.039616   0.084806
H  -0.821694   0.330775  -0.236279
H  -0.081977  -0.889944  -0.158542
3
nstep = 68
O   0.056548   0.040952   0.084131
H  -0.832968   0.320052  -0.229047
H  -0.085758  -0.900596  -0.154983
3
nstep = 69
O   0.057420   0.042259   0.083422
H  -0.845083   0.311988  -0.221636
H  -0.087597  -0.913453  -0.151038
3
nstep = 70
O   0.058152   0.043437   0.082631
H  -0.857212   0.306355  -0.213762
H  -0.087185  -0.926670  -0.146265
3
nstep = 71
O   0.058676   0.044399   0.081721
H  -0.868453   0.302814  -0.205151
H  -0.084329  -0.938512  -0.140314
3
nstep = 72
O   0.058936   0.045080   0.080663
H  -0.877967   0.300976  -0.195582
H  -0.078973  -0.947579  -0.132961
3
nstep = 73
O   0.058894   0.045447   0.079444
H  -0.885084   0.300448  -0.184914
H  -0.071193  -0.952914  -0.124123
3
nstep = 74
O   0.058539   0.045493   0.078066
H  -0.889385   0.300868  -0.173124
H  -0.061207  -0.954072  -0.113864
3
nstep = 75
O   0.057885   0.045246   0.076548
H  -0.890761   0.301915  -0.160309
H  -0.049365  -0.951166  -0.102388
3
nstep = 76
O   0.056976   0.044765   0.074921
H  -0.889452   0.303325  -0.146661
H  -0.036121  -0.944877  -0.090002
3
nstep = 77
O   0.055878   0.044136   0.073224
H  -0.886034   0.304896  -0.132433
H  -0.021982  -0.936397  -0.077074
3
nstep = 78
O   0.054679   0.043469   0.071498
H  -0.881361   0.306482  -0.117911
H  -0.007469  -0.927304  -0.063987
3
nstep = 79
O   0.053474   0.042878   0.069784
H  -0.876475   0.307988  -0.103378
H   0.006926  -0.919350  -0.051089
3
nstep = 80
O   0.052359   0.042469   0.068112
H  -0.872482   0.309336  -0.089082
H   0.020769  -0.914159  -0.038644
3
nstep = 81
O   0.051420   0.042321   0.066505
H  -0.870391   0.310432  -0.075203
H   0.033700  -0.912892  -0.026801
3
nstep = 82
O   0.050723   0.042471   0.064968
H  -0.870960   0.311123  -0.061837
H   0.045419  -0.915973  -0.015582
3
nstep = 83
O   0.050308   0.042906   0.063499
H  -0.874552   0.311168  -0.048996
H   0.055663  -0.922982  -0.004917
3
nstep = 84
O   0.050182   0.043576   0.062086
H  -0.881063   0.310237  -0.036625
H   0.064190  -0.932767   0.005317
3
nstep = 85
O   0.050324   0.044404   0.060715
H  -0.889932   0.307936  -0.024619
H   0.070790  -0.943723   0.015249
3
nstep = 86
O   0.050686   0.045310   0.059370
H  -0.900254   0.303866  -0.012843
H   0.075313  -0.954143   0.024995
3
nstep = 87
O   0.051205   0.046219   0.058037
H  -0.910939   0.297684  -0.001165
H   0.077690  -0.962499   0.034640
3
nstep = 88
O   0.051810   0.047072   0.056707
H  -0.920880   0.289163   0.010520
H   0.077950  -0.967639   0.044233
3
nstep = 89
O   0.052432   0.047833   0.055375
H  -0.929098   0.278230   0.022283
H   0.076228  -0.968879   0.053796
3
nstep = 90
O   0.053007   0.048484   0.054038
H  -0.934849   0.264995   0.034142
H   0.072764  -0.966056   0.063323
3
nstep = 91
O   0.053490   0.049029   0.052700
H  -0.937705   0.249764   0.046076
H   0.067905  -0.959539   0.072795
3
nstep = 92
O   0.053847   0.049492   0.051364
H  -0.937612   0.233014   0.058039
H   0.062093  -0.950203   0.082202
3
nstep = 93
O   0.054069   0.049917   0.050034
H  -0.934899   0.215364   0.069978
H   0.055837  -0.939346   0.091550
3
nstep = 94
O   0.054162   0.050356   0.048709
H  -0.930256   0.197527   0.081848
H   0.049696  -0.928534   0.100877
3
nstep = 95
O   0.054153   0.050863   0.047387
H  -0.924651   0.180259   0.093627
H   0.044240  -0.919384   0.110245
3
nstep = 96
O   0.054076   0.051480   0.046064
H  -0.919212   0.164288   0.105319
H   0.040029  -0.913279   0.119728
3
nstep = 97
O   0.053969   0.052220   0.044733
H  -0.915045   0.150258   0.116956
H   0.037571  -0.911095   0.129387
3
nstep = 98
O   0.053861   0.053064   0.043390
H  -0.913039   0.138666   0.128585
H   0.037301  -0.913007   0.139239
3
nstep = 99
O   0.053761   0.053956   0.042038
H  -0.913680   0.129839   0.140238
H   0.039542  -0.918461   0.149226
3
nstep = 100
O   0.053656   0.054816   0.040685
H  -0.916942   0.123922   0.151900
H   0.044478  -0.926294   0.159210
3
nstep = 101
O   0.053511   0.055549   0.039349
H  -0.922278   0.120874   0.163505
H   0.052129  -0.934982   0.168989
3
nstep = 102
O   0.053276   0.056070   0.038050
H  -0.928746   0.120496   0.174936
H   0.062360  -0.942937   0.178342
3
nstep = 103
O   0.052896   0.056310   0.036810
H  -0.935202   0.122466   0.186052
H   0.074900  -0.948750   0.187065
3
nstep = 104
O   0.052322   0.056229   0.035648
H  -0.940500   0.126384   0.196702
H   0.089383  -0.951361   0.195003
3
nstep = 105
O   0.051520   0.055814   0.034578
H  -0.943664   0.131806   0.206751
H   0.105373  -0.950153   0.202068
3
nstep = 106
O   0.050478   0.055088   0.033607
H  -0.944007   0.138264   0.216103
H   0.122402  -0.944997   0.208253
3
nstep = 107
O   0.049203   0.054103   0.032731
H  -0.941213   0.145292   0.224721
H   0.140001  -0.936262   0.213649
3
nstep = 108
O   0.047729   0.052938   0.031936
H  -0.935372   0.152450   0.232655
H   0.157747  -0.924775   0.218445
3
nstep = 109
O   0.046107   0.051692   0.031193
H  -0.926977   0.159348   0.240048
H   0.175296  -0.911735   0.222930
3
nstep = 110
O   0.044407   0.050474   0.030466
H  -0.916878   0.165660   0.247143
H   0.192400  -0.898557   0.227464
3
nstep = 111
O   0.042708   0.049388   0.029710
H  -0.906198   0.171139   0.254274
H   0.208909  -0.886666   0.232445
3
nstep = 112
O   0.041093   0.048521   0.028874
H  -0.896192   0.175608   0.261840
H   0.224733  -0.877256   0.238251
3
nstep = 113
O   0.039644   0.047925   0.027914
H  -0.888063   0.178947   0.270263
H   0.239790  -0.871057   0.245185
3
nstep = 114
O   0.038427   0.047615   0.026795
H  -0.882749   0.181055   0.279933
H   0.253951  -0.868208   0.253425
3
nstep = 115
O   0.037486   0.047569   0.025497
H  -0.880731   0.181821   0.291125
H   0.266990  -0.868250   0.262994
3
nstep = 116
O   0.036834   0.047739   0.024024
H  -0.881909   0.181109   0.303939
H   0.278599  -0.870258   0.273756
3
nstep = 117
O   0.036450   0.048060   0.022397
H  -0.885600   0.178771   0.318263
H   0.288436  -0.873045   0.285457
3
nstep = 118
O   0.036282   0.048462   0.020656
H  -0.890683   0.174680   0.333798
H   0.296206  -0.875395   0.297771
3
nstep = 119
O   0.036258   0.048885   0.018851
H  -0.895821   0.168769   0.350101
H   0.301722  -0.876250   0.310358
3
nstep = 120
O   0.036299   0.049278   0.017032
H  -0.899690   0.161068   0.366656
H   0.304945  -0.874833   0.322902
3
nstep = 121
O   0.036325   0.049605   0.015250
H  -0.901175   0.151723   0.382936
H   0.306005  -0.870716   0.335138
3
nstep = 122
O   0.036270   0.049845   0.013545
H  -0.899497   0.141006   0.398465
H   0.305206  -0.863839   0.346879
3
nstep = 123
O   0.036082   0.049993   0.011949
H  -0.894296   0.129302   0.412859
H   0.303018  -0.854510   0.358022
3
nstep = 124
O   0.035727   0.050059   0.010477
H  -0.885666   0.117095   0.425873
H   0.300061  -0.843359   0.368560
3
nstep = 125
O   0.035195   0.050063   0.009129
H  -0.874153   0.104933   0.437432
H   0.297069  -0.831267   0.378578
3
nstep = 126
O   0.034494   0.050033   0.007888
H  -0.860708   0.093395   0.447642
H   0.294841  -0.819243   0.388224
3
nstep = 127
O   0.033654   0.049994   0.006726
H  -0.846591   0.083045   0.456785
H   0.294169  -0.808274   0.397665
3
nstep = 128
O   0.032718   0.049965   0.005610
H  -0.833219   0.074391   0.465274
H   0.295765  -0.799152   0.407031
3
nstep = 129
O   0.031738   0.049948   0.004509
H  -0.821956   0.067844   0.473582
H   0.300179  -0.792327   0.416349
3
nstep = 130
O   0.030761   0.049926   0.003402
H  -0.813887   0.063688   0.482131
H   0.307739  -0.787824   0.425511
3
nstep = 131
O   0.029822   0.049866   0.002290
H  -0.809619   0.062068   0.491172
H   0.318505  -0.785248   0.434252
3
nstep = 132
O   0.028934   0.049722   0.001200
H  -0.809158   0.062988   0.500690
H   0.332247  -0.783864   0.442177
3
nstep = 133
O   0.028091   0.049446   0.000177
H  -0.811894   0.066295   0.510393
H   0.348474  -0.782742   0.448840
3
nstep = 134
O   0.027265   0.048993  -0.000722
H  -0.816746   0.071708   0.519786
H   0.366533  -0.780917   0.453838
3
nstep = 135
O   0.026421   0.048336  -0.001444
H  -0.822393   0.078851   0.528292
H   0.385699  -0.777548   0.456884
3
nstep = 136
O   0.025517   0.047464  -0.001946
H  -0.827507   0.087282   0.535363
H   0.405266  -0.772018   0.457848
3
nstep = 137
O   0.024523   0.046384  -0.002206
H  -0.830938   0.096533   0.540586
H   0.424606  -0.763995   0.456782
3
nstep = 138
O   0.023416   0.045125  -0.002225
H  -0.831840   0.106135   0.543746
H   0.443222  -0.753452   0.453920
3
nstep = 139
O   0.022188   0.043731  -0.002029
H  -0.829741   0.115644   0.544866
H   0.460773  -0.740662   0.449675
3
nstep = 140
O   0.020845   0.042260  -0.001672
H  -0.824580   0.124669   0.544226
H   0.477100  -0.726153   0.444604
3
nstep = 141
O   0.019407   0.040777  -0.001229
H  -0.816706   0.132895   0.542362
H   0.492222  -0.710643   0.439371
3
nstep = 142
O   0.017910   0.039345  -0.000791
H  -0.806840   0.140105   0.540034
H   0.506311  -0.694937   0.434686
3
nstep = 143
O   0.016400   0.038019  -0.000458
H  -0.795995   0.146187   0.538175
H   0.519634  -0.679815   0.431228
3
nstep = 144
O   0.014931   0.036841  -0.000331
H  -0.785336   0.151129   0.537800
H   0.532481  -0.665905   0.429572
3
nstep = 145
O   0.013559   0.035830  -0.000496
H  -0.775976   0.154990   0.539878
H   0.545072  -0.653590   0.430128
3
nstep = 146
O   0.012331   0.034986  -0.001013
H  -0.768757   0.157857   0.545180
H   0.557493  -0.642957   0.433099
3
nstep = 147
O   0.011278   0.034294  -0.001907
H  -0.764052   0.159795   0.554117
H   0.569643  -0.633814   0.438469
3
nstep = 148
O   0.010403   0.033726  -0.003160
H  -0.761659   0.160820   0.566628
H   0.581243  -0.625748   0.446010
3
nstep = 149
O   0.009685   0.033249  -0.004713
H  -0.760837   0.160901   0.582163
H   0.591908  -0.618210   0.455319
3
nstep = 150
O   0.009080   0.032831  -0.006476
H  -0.760484   0.159987   0.599797
H   0.601237  -0.610604   0.465884
3
nstep = 151
O   0.008533   0.032439  -0.008342
H  -0.759391   0.158043   0.618392
H   0.608893  -0.602383   0.477145
3
nstep = 152
O   0.007990   0.032044  -0.010203
H  -0.756468   0.155085   0.636770
H   0.614670  -0.593114   0.488546
3
nstep = 153
O   0.007401   0.031625  -0.011961
H  -0.750910   0.151200   0.653862
H   0.618528  -0.582522   0.499583
3
nstep = 154
O   0.006732   0.031165  -0.013535
H  -0.742290   0.146557   0.668808
H   0.620616  -0.570511   0.509830
3
nstep = 155
O   0.005959   0.030653  -0.014870
H  -0.730595   0.141400   0.681026
H   0.621278  -0.557166   0.518966
3
nstep = 156
O   0.005077   0.030086  -0.015936
H  -0.716233   0.136044   0.690259
H   0.621043  -0.542736   0.526781
3
nstep = 157
O   0.004090   0.029465  -0.016732
H  -0.699999   0.130853   0.696600
H   0.620590  -0.527605   0.533181
3
nstep = 158
O   0.003022   0.028793  -0.017286
H  -0.683012   0.126223   0.700485
H   0.620703  -0.512235   0.538169
3
nstep = 159
O   0.001903   0.028077  -0.017650
H  -0.666605   0.122550   0.702650
H   0.622189  -0.497104   0.541816
3
nstep = 160
O   0.000776   0.027320  -0.017885
H  -0.652166   0.120198   0.704021
H   0.625791  -0.482629   0.544216
3
nstep = 161
O  -0.000319   0.026520  -0.018058
H  -0.640946   0.119461   0.705552
H   0.632090  -0.469098   0.545442
3
nstep = 162
O  -0.001346   0.025674  -0.018216
H  -0.633856   0.120526   0.708026
H   0.641419  -0.456633   0.545501
3
nstep = 163
O  -0.002278   0.024777  -0.018382
H  -0.631307   0.123447   0.711861
H   0.653788  -0.445190   0.544323
3
nstep = 164
O  -0.003106   0.023822  -0.018544
H  -0.633103   0.128109   0.716992
H   0.668840  -0.434581   0.541777
3
nstep = 165
O  -0.003838   0.022808  -0.018658
H  -0.638463   0.134244   0.722896
H   0.685911  -0.424498   0.537711
3
nstep = 166
O  -0.004495   0.021736  -0.018667
H  -0.646189   0.141467   0.728745
H   0.704147  -0.414556   0.531997
3
nstep = 167
O  -0.005106   0.020607  -0.018508
H  -0.654899   0.149337   0.733617
H   0.722630  -0.404369   0.524575
3
nstep = 168
O  -0.005701   0.019430  -0.018132
H  -0.663239   0.157403   0.736689
H   0.740486  -0.393599   0.515487
3
nstep = 169
O  -0.006306   0.018214  -0.017512
H  -0.670043   0.165254   0.737377
H   0.756970  -0.381997   0.504894
3
nstep = 170
O  -0.006942   0.016972  -0.016652
H  -0.674436   0.172549   0.735417
H   0.771535  -0.369423   0.493085
3
nstep = 171
O  -0.007621   0.015718  -0.015581
H  -0.675889   0.179044   0.730898
H   0.783857  -0.355846   0.480467
3
nstep = 172
O  -0.008348   0.014464  -0.014359
H  -0.674250   0.184606   0.724274
H   0.793860  -0.341340   0.467545
3
nstep = 173
O  -0.009121   0.013220  -0.013072
H  -0.669739   0.189224   0.716336
H   0.801707  -0.326063   0.454891
3
nstep = 174
O  -0.009926   0.011993  -0.011824
H  -0.662924   0.193015   0.708161
H   0.807771  -0.310224   0.443100
3
nstep = 175
O  -0.010745   0.010783  -0.010731
H  -0.654641   0.196209   0.701019
H   0.812591  -0.294052   0.432741
3
nstep = 176
O  -0.011556   0.009583  -0.009904
H  -0.645858   0.199117   0.696224
H   0.816782  -0.277756   0.424307
3
nstep = 177
O  -0.012339   0.008382  -0.009440
H  -0.637490   0.202068   0.694937
H   0.820953  -0.261491   0.418171
3
nstep = 178
O  -0.013085   0.007168  -0.009403
H  -0.630197   0.205342   0.697959
H   0.825595  -0.245347   0.414558
3
nstep = 179
O  -0.013796   0.005933  -0.009811
H  -0.624230   0.209097   0.705533
H   0.831001  -0.229350   0.413517
3
nstep = 180
O  -0.014487   0.004677  -0.010630
H  -0.619374   0.213322   0.717249
H   0.837199  -0.213479   0.414902
3
nstep = 181
O  -0.015181   0.003405  -0.011775
H  -0.615025   0.217853   0.732109
H   0.843959  -0.197659   0.418368
3
nstep = 182
O  -0.015902   0.002128  -0.013129
H  -0.610372   0.222422   0.748727
H   0.850843  -0.181785   0.423405
3
nstep = 183
O  -0.016666   0.000857  -0.014556
H  -0.604612   0.226718   0.765577
H   0.857298  -0.165750   0.429386
3
nstep = 184
O  -0.017475  -0.000394  -0.015924
H  -0.597114   0.230455   0.781223
H   0.862756  -0.149476   0.435627
3
nstep = 185
O  -0.018324  -0.001612  -0.017116
H  -0.587522   0.233411   0.794473
H   0.866737  -0.132937   0.441451
3
nstep = 186
O  -0.019193  -0.002788  -0.018040
H  -0.575798   0.235458   0.804485
H   0.868926  -0.116162   0.446230
3
nstep = 187
O  -0.020061  -0.003916  -0.018637
H  -0.562226   0.236570   0.810820
H   0.869232  -0.099239   0.449436
3
nstep = 188
O  -0.020899  -0.004991  -0.018879
H  -0.547390   0.236836   0.813469
H   0.867813  -0.082304   0.450663
3
nstep = 189
O  -0.021682  -0.006015  -0.018777
H  -0.532141   0.236451   0.812852
H   0.865082  -0.065525   0.449647
3
nstep = 190
O  -0.022383  -0.006997  -0.018374
H  -0.517521   0.235709   0.809787
H   0.861682  -0.049076   0.446273
3
nstep = 191
O  -0.022982  -0.007949  -0.017743
H  -0.504669   0.234972   0.805392
H   0.858424  -0.033109   0.440567
3
nstep = 192
O  -0.023467  -0.008888  -0.016971
H  -0.494681   0.234623   0.800934
H   0.856192  -0.017730   0.432666
3
nstep = 193
O  -0.023833  -0.009834  -0.016145
H  -0.488454   0.235005   0.797601
H   0.855824  -0.002984   0.422784
3
nstep = 194
O  -0.024088  -0.010801  -0.015336
H  -0.486537   0.236348   0.796268
H   0.857978   0.011144   0.411173
3
nstep = 195
O  -0.024248  -0.011795  -0.014583
H  -0.489003   0.238708   0.797296
H   0.862998   0.024695   0.398101
3
nstep = 196
O  -0.024337  -0.012812  -0.013888
H  -0.495389   0.241944   0.800445
H   0.870815   0.037737   0.383830
3
nstep = 197
O  -0.024383  -0.013839  -0.013217
H  -0.504772   0.245753   0.804962
H   0.880940   0.050354   0.368582
3
nstep = 198
O  -0.024411  -0.014856  -0.012516
H  -0.515930   0.249738   0.809791
H   0.892534   0.062639   0.352536
3
nstep = 199
O  -0.024435  -0.015843  -0.011725
H  -0.527547   0.253495   0.813824
H   0.904549   0.074680   0.335847
3
nstep = 200
O  -0.024466  -0.016784  -0.010795
H  -0.538382   0.256683   0.816112
H   0.915879   0.086548   0.318678
3
nstep = 201
O  -0.024504  -0.017668  -0.009696
H  -0.547395   0.259071   0.815995
H   0.925500   0.098301   0.301219
3
nstep = 202
O  -0.024546  -0.018492  -0.008426
H  -0.553823   0.260562   0.813180
H   0.932589   0.109996   0.283703
3
nstep = 203
O  -0.024584  -0.019263  -0.007006
H  -0.557219   0.261203   0.807761
H   0.936593   0.121691   0.266406
3
nstep = 204
O  -0.024611  -0.019998  -0.005487
H  -0.557468   0.261186   0.800214
H   0.937283   0.133461   0.249648
3
nstep = 205
O  -0.024622  -0.020722  -0.003942
H  -0.554786   0.260836   0.791372
H   0.934775   0.145399   0.233772
3
nstep = 206
O  -0.024613  -0.021472  -0.002462
H  -0.549690   0.260593   0.782352
H   0.929526   0.157635   0.219116
3
nstep = 207
O  -0.024584  -0.022289  -0.001146
H  -0.542919   0.260965   0.774435
H   0.922298   0.170337   0.205980
3
nstep = 208
O  -0.024545  -0.023219  -0.000089
H  -0.535312   0.262468   0.768893
H   0.914069   0.183714   0.194601
3
nstep = 209
O  -0.024515  -0.024303   0.000636
H  -0.527640   0.265539   0.766768
H   0.905916   0.197998   0.185130
3
nstep = 210
O  -0.024522  -0.025573   0.000987
H  -0.520455   0.270446   0.768656
H   0.898849   0.213407   0.177617
3
nstep = 211
O  -0.024602  -0.027039   0.000970
H  -0.513976   0.277213   0.774550
H   0.893637   0.230090   0.172002
3
nstep = 212
O  -0.024783  -0.028686   0.000635
H  -0.508081   0.285590   0.783811
H   0.890642   0.248065   0.168098
3
nstep = 213
O  -0.025082  -0.030475   0.000074
H  -0.502386   0.295099   0.795296
H   0.889739   0.267187   0.165591
3
nstep = 214
O  -0.025495  -0.032349  -0.000599
H  -0.496398   0.305114   0.807594
H   0.890351   0.287148   0.164061
3
nstep = 215
O  -0.025993  -0.034236  -0.001264
H  -0.489660   0.314966   0.819275
H   0.891590   0.307492   0.163020
3
nstep = 216
O  -0.026535  -0.036064  -0.001811
H  -0.481856   0.324026   0.829096
H   0.892445   0.327674   0.161949
3
nstep = 217
O  -0.027066  -0.037764  -0.002150
H  -0.472874   0.331775   0.836128
H   0.891972   0.347126   0.160344
3
nstep = 218
O  -0.027536  -0.039280  -0.002219
H  -0.462814   0.337840   0.839830
H   0.889431   0.365325   0.157743
3
nstep = 219
O  -0.027897  -0.040574  -0.001985
H  -0.451995   0.342016   0.840078
H   0.884384   0.381847   0.153750
3
nstep = 220
O  -0.028111  -0.041625  -0.001446
H  -0.440927   0.344280   0.837164
H   0.876739   0.396401   0.148050
3
nstep = 221
O  -0.028153  -0.042436  -0.000633
H  -0.430291   0.344786   0.831782
H   0.866773   0.408868   0.140418
3
nstep = 222
O  -0.028013  -0.043031   0.000399
H  -0.420874   0.343858   0.824965
H   0.855110   0.419324   0.130722
3
nstep = 223
O  -0.027696  -0.043457   0.001574
H  -0.413491   0.341946   0.817968
H   0.842657   0.428050   0.118916
3
nstep = 224
O  -0.027225  -0.043774   0.002810
H  -0.408870   0.339552   0.812081
H   0.830501   0.435514   0.105035
3
nstep = 225
O  -0.026637  -0.044048   0.004030
H  -0.407541   0.337138   0.808410
H   0.819760   0.442311   0.089182
3
nstep = 226
O  -0.025978  -0.044339   0.005181
H  -0.409715   0.335035   0.807652
H   0.811405   0.449065   0.071523
3
nstep = 227
O  -0.025302  -0.044688   0.006240
H  -0.415209   0.333379   0.809936
H   0.806071   0.456318   0.052297
3
nstep = 228
O  -0.024651  -0.045114   0.007216
H  -0.423439   0.332104   0.814802
H   0.803895   0.464409   0.031813
3
nstep = 229
O  -0.024058  -0.045608   0.008145
H  -0.433502   0.330998   0.821320
H   0.804463   0.473417   0.010436
3
nstep = 230
O  -0.023532  -0.046142   0.009073
H  -0.444326   0.329790   0.828319
H   0.806875   0.483156  -0.011416
3
nstep = 231
O  -0.023067  -0.046675   0.010046
H  -0.454828   0.328235   0.834615
H   0.809927   0.493242  -0.033288
3
nstep = 232
O  -0.022641  -0.047168   0.011098
H  -0.464039   0.326178   0.839207
H   0.812322   0.503195  -0.054702
3
nstep = 233
O  -0.022227  -0.047591   0.012242
H  -0.471199   0.323590   0.841390
H   0.812865   0.512549  -0.075194
3
nstep = 234
O  -0.021798  -0.047927   0.013475
H  -0.475802   0.320577   0.840815
H   0.810603   0.520933  -0.094339
3
nstep = 235
O  -0.021329  -0.048177   0.014772
H  -0.477615   0.317379   0.837506
H   0.804911   0.528129  -0.111781
3
nstep = 236
O  -0.020802  -0.048361   0.016092
H  -0.476679   0.314355   0.831856
H   0.795547   0.534110  -0.127253
3
nstep = 237
O  -0.020208  -0.048522   0.017380
H  -0.473305   0.311971   0.824597
H   0.782672   0.539056  -0.140601
3
nstep = 238
O  -0.019549  -0.048715   0.018573
H  -0.468030   0.310750   0.816727
H   0.766847   0.543369  -0.151822
3
nstep = 239
O  -0.018837  -0.049012   0.019611
H  -0.461553   0.311218   0.809383
H   0.748974   0.547660  -0.161084
3
nstep = 240
O  -0.018097  -0.049491   0.020445
H  -0.454612   0.313831   0.803667
H   0.730195   0.552704  -0.168722
3
nstep = 241
O  -0.017365  -0.050222   0.021051
H  -0.447866   0.318885   0.800444
H   0.711742   0.559346  -0.175197
3
nstep = 242
O  -0.016683  -0.051257   0.021433
H  -0.441770   0.326441   0.800170
H   0.694737   0.568355  -0.181026
3
nstep = 243
O  -0.016089  -0.052615   0.021624
H  -0.436517   0.336275   0.802783
H   0.679982   0.580244  -0.186698
3
nstep = 244
O  -0.015608  -0.054268   0.021684
H  -0.432035   0.347875   0.807725
H   0.667793   0.595095  -0.192591
3
nstep = 245
O  -0.015240  -0.056144   0.021682
H  -0.428058   0.360511   0.814069
H   0.657940   0.612475  -0.198916
3
nstep = 246
O  -0.014967  -0.058134   0.021692
H  -0.424224   0.373333   0.820720
H   0.649738   0.631487  -0.205727
3
nstep = 247
O  -0.014752  -0.060108   0.021776
H  -0.420181   0.385486   0.826615
H   0.642244   0.650920  -0.212954
3
nstep = 248
O  -0.014548  -0.061936   0.021979
H  -0.415659   0.396203   0.830877
H   0.634470   0.669457  -0.220469
3
nstep = 249
O  -0.014313  -0.063504   0.022331
H  -0.410516   0.404870   0.832915
H   0.625559   0.685873  -0.228147
3
nstep = 250
O  -0.014006  -0.064723   0.022845
H  -0.404754   0.411068   0.832466
H   0.614892   0.699175  -0.235911
3
nstep = 251
O  -0.013599  -0.065537   0.023513
H  -0.398522   0.414590   0.829616
H   0.602138   0.708687  -0.243761
3
nstep = 252
O  -0.013071  -0.065929   0.024316
H  -0.392118   0.415447   0.824791
H   0.587284   0.714096  -0.251782
3